<VTKFile type="UnstructuredGrid" version="0.1" byte_order="BigEndian">
  <UnstructuredGrid>
    <Piece NumberOfPoints="1250" NumberOfCells="2576">
      <PointData Scalars="scalars">
        <DataArray type="Float32" Name="Surf" Format="ascii">
          0
          0
          0
          0
          0
          0
          0
          1
          0
          0
          0
          1
          0
          0
          0
          0
          0
          0
          0
          0
          0
          1
          0
          0
          0
          0
          0
          0
          0
          0
          0
          0
          0
          0
          0
          0
          0
          0
          0
          1
          0
          0
          0
          0
          0
          1
          0
          1
          0
          0
          0
          1
          0
          1
          0
          0
          0
          1
          0
          0
          0
          1
          0
          0
          0
          1
          1
          0
          0
          1
          0
          0
          0
          0
          0
          0
          0
          0
          0
          0
          0
          1
          0
          0
          0
          0
          0
          1
          1
          0
          0
          0
          0
          0
          0
          0
          0
          0
          1
          0
          0
          0
          0
          0
          1
          0
          0
          0
          0
          0
          0
          1
          0
          1
          0
          0
          0
          0
          0
          0
          0
          0
          0
          0
          0
          0
          0
          0
          0
          0
          1
          1
          0
          0
          0
          0
          0
          1
          0
          0
          1
          1
          0
          0
          0
          0
          0
          0
          1
          0
          1
          0
          0
          1
          0
          0
          0
          0
          0
          0
          0
          0
          1
          1
          0
          0
          0
          0
          0
          0
          0
          0
          0
          0
          1
          0
          0
          0
          0
          0
          0
          1
          0
          0
          0
          1
          0
          1
          1
          0
          0
          1
          0
          0
          0
          0
          0
          0
          0
          0
          0
          0
          0
          0
          1
          0
          0
          0
          0
          0
          0
          0
          0
          1
          0
          0
          0
          0
          1
          0
          0
          0
          0
          0
          0
          0
          0
          0
          0
          0
          0
          0
          0
          1
          0
          0
          0
          0
          0
          0
          1
          0
          0
          0
          0
          0
          0
          0
          1
          0
          0
          0
          0
          0
          0
          1
          0
          0
          0
          0
          0
          1
          0
          0
          0
          0
          1
          0
          0
          1
          0
          1
          0
          0
          0
          0
          0
          1
          0
          0
          0
          1
          1
          0
          0
          0
          0
          1
          0
          0
          1
          0
          0
          1
          1
          0
          0
          0
          0
          0
          1
          1
          1
          0
          1
          0
          0
          0
          0
          0
          0
          0
          0
          0
          0
          0
          0
          0
          0
          0
          0
          1
          0
          0
          0
          1
          1
          0
          0
          0
          0
          1
          0
          0
          1
          0
          0
          0
          0
          0
          1
          0
          1
          0
          0
          1
          0
          0
          0
          0
          0
          0
          0
          0
          1
          0
          0
          0
          0
          0
          0
          1
          1
          0
          0
          0
          0
          0
          0
          0
          0
          0
          0
          0
          0
          0
          0
          0
          0
          0
          0
          0
          0
          0
          1
          0
          0
          1
          0
          0
          1
          0
          0
          0
          0
          0
          0
          0
          0
          0
          0
          0
          0
          0
          0
          1
          0
          0
          1
          0
          0
          0
          0
          0
          1
          0
          0
          0
          0
          0
          0
          0
          0
          0
          0
          1
          0
          0
          1
          1
          0
          0
          0
          0
          0
          1
          0
          0
          0
          0
          0
          0
          0
          0
          0
          0
          0
          0
          0
          0
          0
          1
          1
          0
          0
          0
          0
          1
          0
          0
          0
          0
          0
          0
          1
          0
          1
          0
          0
          1
          0
          0
          0
          0
          0
          0
          0
          0
          0
          0
          0
          1
          0
          0
          0
          0
          0
          1
          0
          0
          0
          0
          0
          0
          0
          0
          1
          0
          1
          0
          0
          0
          0
          1
          0
          1
          0
          0
          0
          0
          0
          0
          0
          0
          0
          0
          0
          1
          1
          0
          1
          0
          0
          0
          0
          0
          0
          0
          0
          1
          0
          0
          0
          0
          0
          0
          0
          0
          0
          0
          0
          1
          0
          0
          1
          0
          0
          0
          0
          0
          0
          0
          0
          1
          0
          0
          0
          0
          0
          0
          0
          1
          0
          0
          0
          1
          1
          0
          1
          0
          0
          0
          1
          0
          0
          0
          0
          0
          0
          1
          0
          0
          0
          1
          0
          0
          1
          0
          0
          0
          1
          0
          0
          0
          0
          0
          1
          1
          0
          0
          0
          0
          0
          1
          1
          0
          0
          0
          0
          0
          0
          1
          0
          0
          1
          1
          0
          0
          0
          0
          0
          0
          0
          0
          0
          0
          0
          0
          1
          0
          1
          0
          1
          1
          1
          0
          0
          0
          0
          0
          0
          0
          0
          0
          0
          1
          1
          0
          1
          1
          0
          1
          0
          0
          0
          0
          0
          0
          0
          0
          0
          0
          0
          0
          1
          1
          1
          0
          1
          0
          0
          0
          0
          0
          0
          0
          1
          0
          0
          0
          0
          0
          1
          0
          0
          0
          0
          1
          0
          1
          0
          1
          1
          0
          0
          0
          0
          1
          0
          0
          0
          1
          0
          0
          1
          0
          0
          0
          1
          0
          1
          0
          1
          0
          1
          0
          0
          0
          0
          1
          0
          0
          0
          0
          0
          0
          0
          0
          1
          1
          0
          0
          1
          1
          0
          0
          0
          0
          1
          1
          0
          0
          0
          0
          1
          0
          0
          0
          0
          0
          0
          0
          0
          0
          0
          0
          0
          0
          0
          0
          1
          0
          0
          0
          0
          0
          0
          0
          0
          0
          0
          0
          1
          1
          0
          0
          0
          0
          1
          0
          0
          0
          0
          0
          1
          0
          0
          0
          1
          0
          0
          1
          0
          0
          0
          0
          0
          0
          0
          0
          1
          0
          0
          0
          0
          1
          1
          0
          0
          0
          1
          1
          0
          1
          0
          1
          0
          0
          0
          1
          1
          0
          1
          0
          0
          0
          0
          0
          0
          0
          0
          0
          1
          0
          0
          0
          0
          0
          0
          0
          0
          0
          0
          0
          0
          0
          0
          0
          0
          0
          0
          0
          0
          0
          1
          1
          0
          0
          0
          0
          0
          0
          0
          0
          0
          0
          0
          0
          0
          0
          0
          0
          0
          0
          0
          0
          0
          0
          0
          0
          1
          0
          0
          0
          0
          0
          0
          0
          0
          0
          0
          0
          0
          0
          0
          0
          0
          0
          0
          1
          1
          0
          0
          0
          0
          0
          0
          0
          0
          0
          0
          0
          0
          0
          0
          1
          0
          0
          0
          0
          1
          0
          0
          0
          0
          0
          0
          0
          1
          0
          1
          0
          0
          1
          1
          0
          0
          0
          0
          0
          0
          0
          0
          0
          0
          1
          0
          0
          0
          1
          0
          1
          0
          0
          0
          0
          0
          0
          0
          0
          0
          0
          0
          0
          0
          1
          0
          1
          0
          0
          0
          0
          0
          0
          1
          0
          1
          0
          0
          0
          0
          0
          0
          1
          0
          0
          0
          0
          1
          0
          0
          0
          0
          0
          0
          1
          0
          0
          0
          1
          1
          1
          0
          1
          0
          0
          0
          0
          0
          0
          1
          1
          0
          0
          0
          1
          1
          1
          0
          1
          0
          1
          1
          0
          0
          1
          0
          0
          0
          1
          0
          1
          1
          0
          0
          0
          1
          0
          0
          0
          0
          0
          0
          0
          0
          0
          0
          0
          0
          0
          0
          1
          0
          0
          0
          0
          0
          0
          0
          1
          0
          0
          1
          0
          0
          0
          1
          0
          1
          0
          0
          0
          0
          0
          1
          1
          0
          0
          0
          0
          0
          0
          1
          0
          0
          0
          0
          0
          1
          1
          0
          0
          1
          1
          0
          0
          0
          0
          1
          0
          1
          0
          1
          0
          1
          0
          0
          1
          0
          1
          0
          0
          0
          0
          0
          1
          1
          1
          0
          0
          0
          0
          1
          0
          1
          0
          0
          0
          0
          0
          0
          0
          0
          0
          0
          0
          0
          0
          0
          0
          0
          0
          0
          1
          0
          0
          0
          0
          0
          1
          0
          0
          0
          1
          0
          0
          1
          0
          0
          1
          0
          0
          1
          0
          1
          1
          0
          0
          1
          1
          0
          0
          0
          0
          0
          0
          0
          0
          0
          0
          0
          0
          0
          1
          0
          0
          1
          0
          1
          0
          0
          0
          0
          0
          0
          0
          0
          0
          0
          0
          0
          0
          0
          0
          0
          1
          0
          0
          0
          0
          0
          0
          0
          0
          1
          0
          0
          0
          0
          1
          0
          0
          1
          0
          0
          0
          0
          0
          0
          0
          0
          0
          0
          0
          0
          1
          0
          0
          0
          0
          0
          1
          1
          0
          0
          0
          0
          0
          1
          1
        </DataArray>
        <DataArray type="Float32" Name="En" Format="ascii">
          0.0195992
          1.63357
          1.90218
          0.00243388
          0.84939
          1.39601
          0.18757
          0.491669
          0.677951
          3.43488
          2.68961
          1.34765
          0.696132
          4.73627
          0.301013
          0.263275
          0.426537
          2.79349
          0.709234
          2.35539
          0.0391078
          1.06086
          0.0263687
          0.234244
          0.126258
          0.265444
          1.29948
          0.086248
          2.84016
          0.237151
          0.0818543
          0.00192757
          1.68826e-05
          0.298344
          1.24295
          0.73376
          0.729715
          0.348134
          1.73415
          0.11434
          1.00047
          3.13581
          3.69693
          0.579635
          5.69413
          0.257416
          0.241347
          2.2402
          0.0142375
          1.62851
          0.116868
          1.93258
          0.0145319
          0.157955
          0.0360617
          4.83395
          0.635593
          0.0917822
          0.469339
          3.14143
          0.0814546
          0.916347
          0.594694
          0.100034
          0.00377346
          0.0350343
          0.213322
          0.0937213
          1.36665
          0.03741
          0.251633
          1.67769
          0.230038
          0.538046
          0.101011
          0.00160588
          0.0114269
          0.1765
          0.0121796
          3.59014
          2.20657
          0.84758
          1.85717
          0.712444
          2.25953
          1.55527
          12.9669
          0.12766
          0.054073
          0.269724
          0.417222
          0.363975
          1.21366
          0.252975
          0.199077
          1.47329
          2.83987
          0.371169
          0.00163599
          0.275716
          0.421974
          1.03605
          0.0148423
          2.47586
          1.54989
          0.166821
          0.527128
          3.44928
          4.08054
          1.97906
          1.72145
          1.57614
          0.222385
          2.14993
          3.36223
          0.479815
          2.68375
          1.50831
          2.72989
          2.93566
          0.551278
          1.86179
          2.07443
          2.14399
          1.44943
          1.04312
          5.06606
          2.8806
          1.1404
          0.983144
          0.124998
          0.571232
          0.342148
          0.00255442
          2.05316
          2.02873
          0.584006
          0.21391
          0.393312
          0.449664
          0.00414389
          0.217661
          1.8662
          0.242107
          3.48308
          0.00217885
          2.61506
          0.172025
          0.165851
          0.0114181
          0.000556949
          0.728381
          0.00537122
          0.132014
          0.175085
          3.14583
          0.365814
          0.0997909
          1.55284
          0.0481047
          2.16223
          3.65632
          1.31734
          2.89227
          0.326404
          1.28144
          0.162778
          2.50622
          0.796931
          1.18305
          0.000905986
          0.200806
          0.218234
          1.05325
          3.67674
          1.07711
          1.81355
          0.623843
          0.620762
          1.07974
          2.03387
          0.721873
          0.267819
          2.302
          1.94053
          1.48729
          1.67271
          0.00385024
          1.28418
          0.00111632
          0.346395
          0.525546
          1.28606
          0.526863
          0.892737
          0.118571
          2.13292
          0.344576
          1.06835
          1.60959
          1.76541
          0.91422
          0.13745
          0.885033
          0.000147595
          4.0037
          2.44744
          4.08476
          1.88028
          0.0235245
          3.11775
          3.97863
          1.0481
          1.1815
          1.19005
          0.985162
          5.59846
          0.67517
          0.440137
          4.72344
          2.32956
          2.91684
          0.0471803
          0.667844
          1.16416
          1.0612
          1.27313e-06
          2.87039
          0.025071
          2.38687
          0.229945
          2.77772
          0.811558
          0.0578905
          2.58189
          2.06405
          0.0612127
          0.242632
          0.064813
          1.61
          0.924665
          1.9233
          0.137552
          0.0105542
          0.0266337
          2.92179
          0.0513923
          6.46044
          0.358633
          0.00622307
          0.886979
          0.308064
          12.3294
          0.477177
          0.281656
          0.000602955
          3.24106
          3.79947
          0.362101
          0.00552839
          2.68905
          0.507262
          1.09734
          1.42808
          1.76151
          0.074259
          1.44555
          1.64526
          0.217265
          0.151563
          5.81512
          0.0222599
          4.2061
          0.000286649
          0.0209018
          2.61631
          0.178137
          3.33187
          3.00815
          0.156055
          0.295013
          0.00107152
          0.0010019
          0.651729
          4.66872
          0.0150777
          1.35826
          0.152721
          1.8247
          0.0641657
          0.018996
          0.886873
          0.0224662
          0.298585
          1.15471
          0.85919
          2.0828
          1.36565
          0.10151
          0.144667
          2.61311
          0.168247
          0.259862
          0.803106
          0.00866847
          0.767587
          0.21399
          0.131414
          0.161981
          4.58995
          0.0584581
          0.00574364
          0.72129
          0.967098
          0.0139936
          0.0303035
          0.720992
          1.68957
          0.506416
          0.0627587
          0.653955
          1.60001
          0.120334
          1.99275
          3.08138
          3.55541
          1.94561
          1.95634
          0.36717
          0.847253
          0.318299
          0.236704
          2.24839
          2.96642
          2.38981
          0.477384
          0.0398153
          0.183718
          4.6601
          0.572395
          0.0951682
          2.43195
          0.404849
          3.51672
          0.0908212
          0.967555
          0.742153
          2.60303
          2.24982
          0.0298178
          0.697656
          1.32365
          2.40009
          6.8848e-05
          0.0811974
          1.57567
          0.89432
          0.0118609
          0.660305
          0.00261305
          0.0509262
          0.0535577
          0.489456
          1.6789
          0.48692
          1.00943
          1.30287
          1.18323
          2.32656
          0.000795136
          0.339352
          0.942392
          1.73933
          7.22655
          0.988183
          1.05156
          0.0607561
          0.174819
          0.317593
          1.99005
          0.273661
          2.69005
          0.375028
          0.130606
          2.76216
          5.09266
          2.09645
          2.95305
          1.74701
          0.159106
          2.64065
          0.254511
          1.62839
          1.14217
          0.560221
          0.414241
          0.198002
          0.917801
          0.535518
          0.472353
          2.17382
          2.3942
          0.555203
          0.735773
          0.00262177
          0.6376
          0.912973
          0.00438798
          0.213382
          0.924309
          1.64972
          0.248861
          0.841874
          0.394378
          0.9515
          1.09981
          2.31739
          0.0969441
          0.181592
          1.65976
          0.140332
          1.08077
          0.0960326
          0.00100748
          0.897409
          0.0242847
          0.4353
          3.79314
          0.072524
          0.447711
          0.130643
          0.0581301
          0.4879
          4.64432
          0.092287
          1.00203
          1.34241
          0.00420109
          0.974661
          0.450208
          4.07294
          0.0697891
          2.525
          2.19034
          0.696538
          0.712564
          1.81477
          0.922104
          1.77671
          0.126996
          0.044434
          0.441003
          0.969444
          0.0313309
          1.74151
          1.88387
          0.584765
          0.0582637
          0.608148
          3.95933
          0.101602
          0.636386
          0.049254
          0.289176
          2.64494
          0.60541
          3.31781
          2.44231
          1.04169
          0.0252435
          4.02868
          1.56676
          0.136693
          0.29261
          2.82966
          1.1718
          2.50961
          0.109063
          0.123787
          1.40243
          0.720914
          1.31117
          0.632353
          0.13496
          0.487752
          0.0223633
          2.13439
          0.0308864
          0.677495
          1.20805
          0.853477
          0.114125
          0.0163609
          0.791385
          0.323193
          0.578383
          0.209794
          0.154769
          1.08614
          0.025263
          0.133976
          0.749059
          3.8385
          0.0506911
          0.0757398
          0.66991
          1.35807
          0.1454
          0.319262
          0.00513883
          0.797472
          0.0145172
          2.31473
          0.0122876
          0.00156403
          0.175782
          0.577612
          0.702557
          0.335164
          1.15591
          3.88901
          1.15335
          0.18234
          0.262907
          4.35826
          6.26969
          0.507844
          0.289399
          0.00509463
          2.03357
          6.8832
          0.77177
          4.1416
          1.82994
          0.319688
          3.39757
          1.81912
          0.315978
          0.368372
          0.664298
          0.0196555
          0.178238
          3.31548
          1.03343
          0.0236286
          0.247715
          1.85485
          1.33396
          0.496183
          1.1441
          0.278352
          0.878824
          1.29402
          0.0208687
          0.0151471
          0.0529265
          3.29102
          0.00342305
          1.34803
          0.4663
          0.243953
          3.88021
          0.413152
          0.0032681
          0.0446058
          4.77115e-05
          0.0414065
          0.786141
          1.0506
          0.0833637
          3.38272
          0.463949
          0.316755
          0.787011
          2.56396
          0.134981
          0.0168459
          0.0399435
          0.741478
          0.0536308
          0.899885
          0.208027
          1.43653
          2.00864
          2.46073
          0.0113219
          0.0506589
          0.811524
          1.02414
          3.33283
          0.0873981
          1.32435
          5.23477
          0.104
          0.553658
          0.24092
          0.0145351
          0.808757
          1.41147
          1.08465
          0.273603
          0.969253
          0.98296
          1.89385
          0.0210447
          0.138676
          2.68391
          2.81577
          0.644986
          2.12742
          0.0754972
          0.565121
          0.136773
          0.653808
          0.688567
          0.879291
          0.151235
          2.66771e-05
          0.12298
          1.80471
          1.41341
          2.66884
          0.294309
          0.674873
          1.64943
          2.07746
          0.547094
          0.051909
          0.126057
          1.97165
          0.191232
          0.118383
          0.554392
          0.00670351
          0.610516
          0.197175
          1.3112
          1.81788
          2.02117
          2.17818
          4.9442
          0.256558
          1.67581
          0.855958
          1.18723
          1.00087
          1.0802
          1.09369
          0.735753
          0.497556
          1.04087
          0.725481
          0.142143
          0.446079
          0.0264519
          0.292837
          9.92192
          2.54585
          2.30038
          6.57788
          0.833499
          2.31313
          0.662655
          4.28655
          0.0927331
          1.05413
          1.29271
          2.70545
          0.430475
          0.00209151
          0.912404
          1.93896
          1.29755
          0.0528863
          0.62558
          3.4426
          0.0352939
          0.368651
          1.04915
          3.18123
          0.271868
          0.00175726
          2.34066
          2.61676
          0.594339
          1.21217
          0.819089
          0.00158496
          0.0749738
          0.585776
          0.0017408
          1.16172
          0.022096
          0.78185
          0.739044
          2.19313
          1.19358
          3.36894
          0.422875
          0.0158976
          3.7649
          0.0614345
          4.63693
          0.0586693
          3.27097
          3.016
          0.220949
          0.0473658
          0.0141957
          0.0196391
          0.00322951
          0.0370234
          0.546185
          1.49989
          0.00094428
          0.917494
          0.00946148
          0.547049
          3.68105
          0.763381
          0.0369619
          1.7733
          2.54693
          0.0600998
          3.62418
          2.48989
          2.99829
          0.257191
          0.0816487
          0.174387
          1.55054
          0.344399
          0.00166599
          0.534831
          2.53355
          0.913553
          3.16569
          2.76491
          0.00699701
          2.25398
          3.27095
          0.423056
          0.00276317
          1.83249
          0.167955
          0.103392
          0.595384
          2.20667
          0.367122
          0.000556929
          0.333137
          3.78684
          0.299063
          3.71624
          2.12163
          0.0619952
          0.337327
          0.038417
          0.289874
          2.87751
          1.14076
          1.95337
          2.01
          0.0253962
          0.0442724
          0.00371003
          0.898549
          0.0236381
          0.00297442
          0.053899
          2.07438
          0.711565
          0.890295
          0.427251
          0.382483
          2.41425
          0.00408932
          1.55515
          0.0776722
          0.535155
          3.03969
          3.14121