<VTKFile type="UnstructuredGrid" version="0.1" byte_order="BigEndian">
  <UnstructuredGrid>
    <Piece NumberOfPoints="1250" NumberOfCells="2576">
      <PointData Scalars="scalars">
        <DataArray type="Float32" Name="Surf" Format="ascii">
          0
          0
          1
          0
          1
          0
          0
          0
          1
          1
          0
          0
          0
          1
          0
          1
          0
          0
          0
          1
          1
          0
          0
          0
          1
          0
          0
          1
          0
          0
          0
          0
          0
          1
          0
          0
          0
          1
          0
          0
          1
          1
          0
          1
          0
          0
          0
          1
          0
          0
          0
          1
          0
          1
          0
          0
          0
          1
          1
          0
          0
          0
          0
          0
          0
          1
          1
          0
          0
          1
          0
          1
          0
          0
          0
          1
          0
          0
          0
          0
          1
          0
          0
          1
          0
          1
          0
          1
          0
          1
          1
          0
          1
          0
          1
          1
          1
          1
          0
          0
          0
          1
          0
          1
          1
          0
          1
          0
          0
          1
          1
          0
          0
          0
          0
          0
          1
          0
          1
          0
          0
          0
          0
          1
          0
          1
          1
          1
          1
          0
          1
          1
          0
          0
          0
          0
          0
          1
          1
          0
          0
          0
          0
          1
          0
          0
          0
          0
          0
          0
          0
          0
          0
          0
          0
          1
          0
          0
          0
          1
          0
          0
          1
          0
          1
          0
          1
          0
          0
          0
          1
          1
          0
          0
          0
          0
          1
          0
          1
          1
          0
          0
          0
          1
          1
          1
          0
          0
          0
          0
          0
          1
          1
          0
          1
          0
          0
          0
          1
          0
          0
          0
          1
          0
          0
          0
          0
          1
          1
          1
          0
          0
          1
          0
          1
          1
          0
          0
          1
          0
          0
          0
          1
          1
          0
          1
          1
          1
          0
          1
          0
          0
          0
          0
          0
          0
          0
          0
          0
          0
          1
          1
          0
          0
          1
          1
          0
          0
          1
          0
          0
          0
          1
          0
          0
          1
          0
          0
          1
          0
          0
          0
          0
          1
          0
          0
          0
          0
          1
          0
          0
          0
          1
          1
          0
          0
          1
          1
          0
          1
          1
          1
          0
          1
          1
          1
          1
          0
          0
          0
          0
          1
          1
          1
          1
          1
          0
          0
          1
          1
          1
          0
          0
          0
          1
          0
          0
          1
          1
          1
          0
          1
          0
          1
          0
          1
          1
          0
          0
          1
          1
          0
          1
          1
          0
          0
          0
          1
          0
          0
          0
          0
          0
          0
          0
          1
          0
          0
          0
          0
          1
          0
          0
          0
          1
          1
          0
          1
          1
          0
          0
          0
          0
          1
          0
          0
          1
          0
          0
          0
          0
          0
          1
          1
          0
          1
          0
          0
          1
          0
          0
          0
          1
          0
          1
          1
          0
          0
          0
          1
          1
          1
          1
          1
          1
          0
          1
          0
          0
          1
          1
          0
          1
          1
          0
          1
          1
          0
          1
          0
          0
          0
          0
          1
          0
          1
          0
          0
          0
          0
          0
          0
          0
          1
          0
          0
          0
          1
          1
          0
          1
          0
          1
          0
          1
          0
          0
          0
          0
          0
          0
          1
          0
          0
          1
          0
          0
          0
          1
          1
          1
          0
          0
          0
          0
          1
          0
          1
          0
          0
          0
          0
          1
          1
          0
          1
          1
          1
          0
          0
          0
          0
          0
          1
          0
          1
          0
          0
          1
          0
          1
          0
          0
          1
          1
          0
          0
          1
          0
          0
          1
          1
          0
          1
          0
          1
          0
          0
          0
          1
          0
          1
          1
          0
          0
          1
          1
          0
          1
          0
          0
          1
          0
          1
          0
          1
          1
          1
          1
          0
          0
          1
          0
          1
          0
          0
          1
          1
          1
          0
          0
          0
          1
          1
          0
          0
          0
          1
          1
          1
          0
          0
          0
          1
          0
          0
          0
          0
          1
          1
          1
          0
          0
          0
          0
          1
          0
          0
          0
          0
          0
          0
          0
          0
          1
          0
          0
          0
          1
          1
          0
          0
          1
          0
          0
          0
          1
          0
          0
          1
          0
          1
          0
          0
          0
          1
          1
          0
          0
          0
          0
          1
          1
          0
          0
          1
          0
          1
          0
          0
          0
          0
          0
          1
          0
          1
          0
          0
          0
          0
          1
          1
          1
          0
          0
          0
          0
          0
          0
          1
          1
          0
          0
          1
          1
          1
          0
          0
          0
          0
          0
          0
          1
          1
          0
          0
          0
          0
          1
          0
          1
          1
          1
          1
          0
          1
          0
          0
          0
          1
          0
          1
          1
          0
          0
          0
          1
          1
          0
          0
          0
          0
          0
          1
          1
          0
          1
          0
          0
          1
          1
          0
          0
          0
          1
          0
          0
          1
          0
          0
          0
          1
          0
          0
          0
          0
          0
          1
          1
          0
          0
          0
          1
          1
          1
          0
          0
          0
          0
          0
          1
          0
          0
          0
          0
          0
          1
          1
          0
          0
          1
          1
          1
          1
          0
          0
          1
          1
          1
          1
          0
          0
          1
          0
          1
          1
          0
          0
          0
          1
          0
          0
          0
          0
          1
          1
          0
          1
          0
          1
          1
          0
          0
          0
          0
          0
          0
          1
          0
          1
          0
          1
          0
          0
          1
          0
          0
          0
          0
          1
          0
          0
          1
          1
          0
          1
          0
          1
          1
          0
          0
          1
          1
          1
          1
          0
          1
          0
          1
          0
          0
          0
          0
          0
          0
          1
          1
          1
          1
          0
          0
          1
          0
          0
          1
          0
          1
          0
          0
          1
          0
          0
          1
          0
          0
          0
          1
          0
          0
          0
          1
          1
          1
          1
          1
          1
          0
          0
          1
          0
          0
          1
          0
          1
          0
          0
          1
          1
          0
          1
          1
          0
          0
          0
          0
          1
          0
          0
          0
          1
          0
          1
          1
          0
          1
          1
          0
          1
          0
          0
          0
          1
          1
          0
          1
          1
          0
          1
          1
          1
          0
          1
          0
          1
          1
          0
          0
          1
          1
          0
          0
          1
          0
          0
          1
          0
          1
          0
          1
          0
          1
          1
          1
          1
          1
          1
          0
          0
          0
          0
          1
          1
          0
          1
          1
          1
          1
          0
          0
          0
          1
          1
          0
          0
          1
          1
          0
          0
          1
          0
          1
          1
          0
          1
          1
          1
          0
          0
          1
          0
          1
          1
          0
          1
          0
          0
          1
          0
          0
          1
          1
          0
          0
          1
          1
          0
          0
          0
          1
          0
          0
          1
          0
          1
          1
          1
          1
          0
          0
          0
          1
          0
          1
          1
          0
          1
          1
          1
          1
          0
          1
          0
          0
          0
          0
          0
          0
          1
          0
          0
          0
          0
          1
          0
          1
          0
          0
          0
          1
          1
          1
          1
          0
          0
          1
          1
          1
          1
          1
          0
          1
          0
          0
          0
          1
          1
          1
          1
          0
          0
          1
          0
          0
          0
          0
          0
          1
          1
          0
          0
          0
          1
          0
          0
          1
          0
          0
          0
          1
          1
          1
          0
          0
          0
          0
          1
          1
          0
          0
          0
          0
          0
          0
          0
          0
          0
          0
          0
          0
          1
          0
          0
          0
          0
          1
          0
          1
          1
          0
          0
          0
          0
          0
          0
          1
          1
          1
          0
          1
          1
          0
          0
          0
          0
          1
          0
          1
          1
          0
          0
          1
          0
          0
          0
          1
          1
          1
          0
          0
          1
          0
          1
          0
          0
          1
          1
          1
          1
          1
          0
          1
          0
          1
          0
          0
          0
          0
          1
          0
          1
          1
          1
          1
          1
          0
          1
          0
          0
          0
          1
          0
          0
          0
          0
          0
          0
          1
          0
          0
          0
          1
          1
          0
          1
          0
          1
          0
          0
          1
          0
          1
          1
          0
          0
          0
          0
          0
          1
          1
          1
          0
          1
          1
          0
          0
          0
          1
          1
          0
          1
          0
          0
          0
          0
          1
          0
          0
          0
          0
          1
          1
          0
          0
          0
          1
          1
          0
          0
          0
          1
          0
          1
          1
          1
          0
          0
          0
          1
          0
          0
          0
          1
          1
          0
          0
          1
          1
          1
          0
          0
          1
          0
          1
          0
          1
          0
          1
          0
          0
          1
          1
          1
          0
          0
          0
          1
          1
          1
          1
          0
          0
          0
          0
          1
          0
          0
          1
          0
          0
          1
          0
          0
          0
          0
          0
          1
          0
          1
          0
          0
          0
          0
          0
          1
          0
          0
          0
          0
          0
          0
          0
          0
          0
          0
          0
          1
          0
          0
          0
          0
          0
          0
          0
          0
          0
          1
          0
          0
          0
          1
        </DataArray>
        <DataArray type="Float32" Name="En" Format="ascii">
          0.436785
          1.43355
          1.06943
          0.0168998
          0.0871813
          0.543969
          0.055475
          5.90845
          0.762474
          0.00176162
          0.481143
          3.21666
          1.94606
          0.136282
          4.05751
          0.955158
          1.54938
          0.593919
          3.08823
          2.29344
          0.36661
          0.837119
          0.789055
          1.50143
          0.0185016
          1.36973
          2.94874
          0.0183352
          1.18755
          0.216254
          2.51543
          0.0113727
          0.985471
          0.509078
          0.708782
          0.313506
          2.02058
          2.34028
          0.229143
          0.0328793
          0.193067
          0.0940907
          0.718314
          3.35235
          6.44213
          1.62549
          0.00364149
          1.01508
          0.0277037
          2.36623
          1.43266
          0.260625
          0.271381
          0.777276
          2.76442
          1.2909
          3.40474
          0.381471
          0.551075
          1.84882
          0.337293
          3.86249
          1.85334
          3.73113
          0.275306
          1.1596
          0.00490784
          1.55046
          0.0139018
          0.00135786
          1.02027
          0.23472
          0.161357
          0.000607185
          0.272838
          0.0167811
          1.3059
          3.08811
          0.828143
          2.94216
          2.02634
          2.02442
          1.90486
          1.55539
          0.415072
          2.08293
          0.720548
          1.92007
          2.93373
          0.261375
          0.336782
          0.273657
          0.0238959
          0.436386
          2.33829
          0.0902589
          0.609948
          0.00855694
          1.15402
          0.956079
          1.36512
          3.07136
          1.49819
          0.0451054
          0.247179
          0.307946
          1.31864
          2.89724
          1.75374
          0.365559
          0.166724
          0.762893
          2.61678
          2.02238
          2.67515
          1.59455
          0.869025
          2.63293
          0.00147601
          0.666823
          3.59951
          0.00396629
          3.13272
          0.00136583
          0.940954
          0.173942
          0.00315223
          0.0588905
          0.000714526
          2.56142
          0.000367738
          1.16442
          0.0132213
          0.646037
          3.55747
          0.119916
          1.6685
          0.0199865
          0.000436508
          1.82933
          0.0306357
          0.026872
          0.0844928
          0.00656324
          1.58667
          0.0208463
          0.256547
          4.25056
          1.26308
          1.78405
          3.37062
          6.24834
          0.115675
          0.891263
          0.366998
          2.0063
          0.353347
          2.57853
          2.98333
          1.49254
          1.82625
          0.023681
          0.553575
          2.94282
          0.105477
          5.52115
          2.31859
          2.38003
          7.29515
          2.90456
          1.10038
          2.50922
          1.73233
          0.497393
          0.0834107
          3.98568
          0.0712443
          0.0203095
          0.315107
          1.51356
          1.25505
          2.47522
          3.6945
          0.595569
          2.77158
          0.000336971
          1.8745
          2.10342
          0.533275
          2.63405
          0.641305
          2.31589
          1.56191
          2.3685
          0.0642293
          4.67184e-05
          0.125826
          0.749016
          2.05982
          0.262199
          3.22515
          1.40952
          0.152324
          3.24499
          0.233618
          0.260708
          2.13119
          0.844606
          0.366812
          0.50534
          2.25109
          7.27162
          0.0485226
          0.754559
          0.372649
          0.312396
          0.237285
          1.04586
          0.0917286
          0.155103
          0.0599621
          0.868274
          0.00195919
          0.50167
          1.93368
          0.240279
          1.42971
          0.215735
          2.40119
          0.461395
          0.309529
          2.07557
          0.0444905
          0.258113
          1.00776
          3.22423
          8.33131
          0.384633
          2.68222
          0.250144
          1.00113
          0.288231
          0.698408
          5.87282
          4.27364
          0.396487
          0.0855116
          0.0414058
          0.235672
          1.13719
          3.71291
          2.18425
          0.288092
          2.81348
          2.37302
          0.00945657
          0.50325
          0.826308
          0.106602
          0.514521
          1.11168
          1.63394
          1.7646
          0.0183247
          4.94118
          0.949561
          1.53771
          3.02949
          0.517132
          1.23178
          0.538504
          0.354936
          3.08471
          1.96683
          0.031628
          1.99358
          0.143197
          0.976854
          2.79318
          0.527547
          0.779863
          0.0601582
          2.9071
          0.00259597
          0.0840893
          0.00368047
          0.00709735
          1.7202
          0.735759
          0.432493
          0.0585603
          0.0672654
          0.493311
          0.0807864
          1.69497
          0.801159
          0.279415
          2.4743
          0.242403
          0.1341
          5.47671
          0.734117
          0.104891
          0.916375
          0.0545641
          2.5229
          0.748486
          1.08615
          0.251719
          1.15089
          2.0729
          1.80786
          2.83633
          0.000511999
          5.16895
          2.78089
          0.0381845
          3.60096
          2.1612
          0.000659961
          1.2991
          0.115182
          2.59129
          0.282809
          0.626997
          5.34019e-05
          1.68284
          0.211777
          0.506695
          1.48055
          0.480379
          9.35131e-05
          0.00194193
          0.000215573
          1.55469
          0.278631
          0.248144
          0.722582
          0.00157506
          1.01373
          0.0470498
          1.92226
          0.00144587
          0.00056964
          1.23743
          0.624443
          4.42616
          1.9929
          1.98889
          1.97249
          0.598984
          3.72588
          0.256323
          1.84788
          0.725447
          2.6799
          0.354255
          0.294702
          0.569201
          0.852242
          0.108371
          2.36181
          0.0467566
          1.03196
          1.03334
          0.715717
          1.38516
          0.923671
          0.392373
          0.0489846
          1.09935
          2.06928
          0.480918
          1.12801
          0.0828175
          0.322819
          1.05667
          0.00123268
          2.40362
          0.412118
          0.0341988
          0.483964
          2.46189
          1.6451
          0.0622883
          2.48831
          0.00168131
          0.134224
          2.22213
          0.188182
          1.32797
          0.37994
          0.0280486
          0.20455
          4.67488
          0.186751
          7.09226
          0.553096
          1.53764
          4.75026
          0.122463
          0.135259
          1.0932
          2.57133
          0.229616
          0.759236
          0.5019
          0.846665
          4.45863
          2.75655
          0.450339
          0.24449
          3.45437
          0.0757657
          0.0543971
          1.28777
          0.18716
          1.81749
          2.25685
          0.0925408
          0.166613
          4.09523e-05
          0.090597
          2.9168
          0.605878
          1.25201
          2.45076
          0.000566293
          0.000787828
          0.243818
          2.89501
          6.21053
          0.400549
          0.863774
          0.907734
          1.69432
          3.88458
          3.59452
          0.26745
          0.117596
          2.53682
          2.67087
          0.141995
          2.67256
          0.234716
          0.00625102
          1.11207
          0.925015
          0.0596054
          0.0161213
          1.1139
          2.13513
          0.0786381
          0.0714284
          3.05531
          0.505115
          1.19757
          0.175204
          0.0602658
          0.752257
          1.59138
          0.734289
          0.298264
          0.681528
          2.18245
          3.75079
          1.41948
          6.72951
          1.74893
          0.434091
          0.0257719
          2.04164
          0.625018
          2.07902
          0.0496593
          4.54881
          0.0394775
          3.31974
          0.789138
          0.963402
          3.15559
          0.097755
          0.51028
          0.911751
          0.237043
          2.52738
          0.494458
          0.755273
          0.204074
          1.00614
          3.15278
          0.0364077
          0.407553
          0.215017
          0.439372
          0.0289452
          0.916153
          0.57534
          0.00424627
          1.63834
          0.9324
          0.807443
          1.20151
          1.67119
          0.441126
          0.0975055
          0.779545
          0.0125092
          0.0535474
          0.330146
          0.939966
          2.34288
          8.74967
          0.702026
          0.0841556
          0.0266481
          0.0471734
          0.675131
          3.2986
          4.34154
          2.82159
          1.27054
          0.0232828
          2.51718
          2.04412
          0.0381286
          2.52016
          0.118022
          0.941783
          0.367534
          0.00215694
          0.290953
          2.07312
          0.00851521
          0.060733
          1.65086
          2.43463
          2.21403
          0.0270992
          2.01547
          0.0207954
          0.158857
          1.4946
          3.29363
          1.35448
          0.578915
          0.0376442
          0.0513307
          0.468534
          3.03282
          1.0726
          0.0129472
          0.254208
          0.369571
          0.0150195
          2.28498
          5.5544
          1.12092
          1.18632
          0.0334945
          1.16604
          2.61784
          0.709227
          1.10971
          0.524512
          0.00351805
          0.549429
          0.493552
          0.162152
          0.79209
          0.181998
          1.44545
          1.78631
          0.551211
          1.59844
          0.143958
          0.367277
          0.831659
          0.277397
          1.4582
          0.222748
          0.996462
          1.21864
          0.373227
          0.000108408
          1.07562
          0.0551037
          1.24425
          1.69439
          0.0193384
          0.997805
          1.29939
          1.31603
          0.305125
          0.140872
          0.0592148
          1.89292
          0.240879
          2.47228
          3.50591
          0.105547
          0.163152
          1.02274
          5.91031
          1.55323
          2.1571
          0.00150832
          3.04089
          0.0899675
          0.146171
          8.04299e-05
          0.906364
          0.234747
          0.883499
          7.05559
          0.217686
          0.120041
          2.78226
          3.58743
          2.38955
          0.00536225
          0.0531163
          0.0213283
          0.20566
          4.76938
          0.45638
          0.600089
          0.716476
          0.347233
          1.36026
          0.194099
          0.541504
          3.76194
          3.61596e-06
          1.83978
          0.0937465
          1.88816
          3.07113
          1.75539
          0.587637
          1.91496
          0.289571
          0.0244495
          2.27959
          0.868208
          4.94405
          0.0398815
          0.0369334
          2.61277
          3.33186
          1.96153
          1.05951
          3.34732
          1.35754
          0.995504
          1.67076
          4.50512
          9.50336
          0.282131
          0.106439
          0.268438
          0.555012
          4.06648
          0.0923053
          0.623946
          0.930631
          0.189646
          0.00313739
          0.437928
          0.831083
          1.70029
          0.478846
          3.73768
          3.45486
          0.379858
          0.536275
          2.90187
          0.262846
          0.727903
          1.15117
          0.462874
          0.0303572
          3.99518
          1.8764
          4.84314
          0.00466166
          1.9274
          0.522102
          4.68202
          0.064814
          0.0893656
          0.885736
          0.00742247
          1.84854
          0.34291
          4.01542
          1.60562
          0.487353
          4.6064
          0.300942
          0.18684
          0.578642
          0.246564
          0.379943
          0.209552
          0.668695
          3.7385
          0.209472
          0.429367
          0.415097
          0.521611
          0.671933
          0.0738557
          0.0415148
          5.81262
          1.47059
          2.35694
          3.56398
          1.35616
          1.49462
          0.0447687
          2.15526
          0.00626391
          0.00865845
          1.28409
          1.20932
          0.323358
          2.42345
          6.04587
          0.114933
          0.397202
          0.270022
          0.682594
          2.66934
          0.0077765
          0.786612
          0.0502334
          0.588418
          2.35138
          0.0804659
          0.423704
          0.185795
          2.3049
          0.272352
          0.526339
          2.08199
          2.79329
          2.21447
          0.369371
          1.27394
          2.54783
          3.10526
          5.18319
          0.571719
          0.0328704
          0.00317361
          0.0986423
          0.738448
          1.84789
          0.332631
          0.208071
          0.0836374
          3.28723
          0.541073
          0.707594
          0.864317
          0.10796
          6.55744
          0.958394
          0.0587547
          2.98187
          0.00899817
          0.113497
          0.966523
          0.167619
          0.320943
          0.797944
          0.0849311
          0.314845
          1.25725
          0.718066