<VTKFile type="UnstructuredGrid" version="0.1" byte_order="BigEndian">
  <UnstructuredGrid>
    <Piece NumberOfPoints="200" NumberOfCells="412">
      <PointData Scalars="scalars">
        <DataArray type="Float32" Name="noinc" Format="ascii">
          0
          0
          0
          0
          0
          0
          0
          0
          0
          0
          0
          0
          0
          0
          0
          0
          0
          0
          0
          0
          0
          0
          0
          0
          0
          0
          0
          0
          0
          0
          0
          0
          0
          0
          0
          0
          0
          0
          0
          0
          0
          0
          0
          0
          0
          0
          0
          0
          0
          0
          0
          0
          0
          0
          0
          0
          0
          0
          0
          0
          0
          0
          0
          0
          0
          0
          0
          0
          0
          0
          0
          0
          0
          0
          0
          0
          0
          0
          0
          0
          0
          0
          0
          0
          0
          0
          0
          0
          0
          0
          0
          0
          0
          0
          0
          0
          0
          0
          0
          0
          0
          0
          0
          0
          0
          0
          0
          0
          0
          0
          0
          0
          0
          0
          0
          0
          0
          0
          0
          0
          0
          0
          0
          0
          0
          0
          0
          0
          0
          0
          0
          0
          0
          0
          0
          0
          0
          0
          0
          0
          0
          0
          0
          0
          0
          0
          0
          0
          0
          0
          0
          0
          0
          0
          0
          0
          0
          0
          0
          0
          0
          0
          0
          0
          0
          0
          0
          0
          0
          0
          0
          0
          0
          0
          0
          0
          0
          0
          0
          0
          0
          0
          0
          0
          0
          0
          0
          0
          0
          0
          0
          0
          0
          0
          0
          0
          0
          0
          0
          0
        </DataArray>
        <DataArray type="Float32" Name="dir"  NumberOfComponents="3" Format="ascii">
  0.00000000    0.00000000    0.00000000
  0.00000000    0.00000000    0.00000000
  0.00000000    0.00000000    0.00000000
  0.00000000    0.00000000    0.00000000
  0.00000000    0.00000000    0.00000000
  0.00000000    0.00000000    0.00000000
  0.00000000    0.00000000    0.00000000
  0.00000000    0.00000000    0.00000000
  0.00000000    0.00000000    0.00000000
  0.00000000    0.00000000    0.00000000
  0.00000000    0.00000000    0.00000000
  0.00000000    0.00000000    0.00000000
  0.00000000    0.00000000    0.00000000
  0.00000000    0.00000000    0.00000000
  0.00000000    0.00000000    0.00000000
  0.00000000    0.00000000    0.00000000
  0.00000000    0.00000000    0.00000000
  0.00000000    0.00000000    0.00000000
  0.00000000    0.00000000    0.00000000
  0.00000000    0.00000000    0.00000000
  0.00000000    0.00000000    0.00000000
  0.00000000    0.00000000    0.00000000
  0.00000000    0.00000000    0.00000000
  0.00000000    0.00000000    0.00000000
  0.00000000    0.00000000    0.00000000
  0.00000000    0.00000000    0.00000000
  0.00000000    0.00000000    0.00000000
  0.00000000    0.00000000    0.00000000
  0.00000000    0.00000000    0.00000000
  0.00000000    0.00000000    0.00000000
  0.00000000    0.00000000    0.00000000
  0.00000000    0.00000000    0.00000000
  0.00000000    0.00000000    0.00000000
  0.00000000    0.00000000    0.00000000
  0.00000000    0.00000000    0.00000000
  0.00000000    0.00000000    0.00000000
  0.00000000    0.00000000    0.00000000
  0.00000000    0.00000000    0.00000000
  0.00000000    0.00000000    0.00000000
  0.00000000    0.00000000    0.00000000
  0.00000000    0.00000000    0.00000000
  0.00000000    0.00000000    0.00000000
  0.00000000    0.00000000    0.00000000
  0.00000000    0.00000000    0.00000000
  0.00000000    0.00000000    0.00000000
  0.00000000    0.00000000    0.00000000
  0.00000000    0.00000000    0.00000000
  0.00000000    0.00000000    0.00000000
  0.00000000    0.00000000    0.00000000
  0.00000000    0.00000000    0.00000000
  0.00000000    0.00000000    0.00000000
  0.00000000    0.00000000    0.00000000
  0.00000000    0.00000000    0.00000000
  0.00000000    0.00000000    0.00000000
  0.00000000    0.00000000    0.00000000
  0.00000000    0.00000000    0.00000000
  0.00000000    0.00000000    0.00000000
  0.00000000    0.00000000    0.00000000
  0.00000000    0.00000000    0.00000000
  0.00000000    0.00000000    0.00000000
  0.00000000    0.00000000    0.00000000
  0.00000000    0.00000000    0.00000000
  0.00000000    0.00000000    0.00000000
  0.00000000    0.00000000    0.00000000
  0.00000000    0.00000000    0.00000000
  0.00000000    0.00000000    0.00000000
  0.00000000    0.00000000    0.00000000
  0.00000000    0.00000000    0.00000000
  0.00000000    0.00000000    0.00000000
  0.00000000    0.00000000    0.00000000
  0.00000000    0.00000000    0.00000000
  0.00000000    0.00000000    0.00000000
  0.00000000    0.00000000    0.00000000
  0.00000000    0.00000000    0.00000000
  0.00000000    0.00000000    0.00000000
  0.00000000    0.00000000    0.00000000
  0.00000000    0.00000000    0.00000000
  0.00000000    0.00000000    0.00000000
  0.00000000    0.00000000    0.00000000
  0.00000000    0.00000000    0.00000000
  0.00000000    0.00000000    0.00000000
  0.00000000    0.00000000    0.00000000
  0.00000000    0.00000000    0.00000000
  0.00000000    0.00000000    0.00000000
  0.00000000    0.00000000    0.00000000
  0.00000000    0.00000000    0.00000000
  0.00000000    0.00000000    0.00000000
  0.00000000    0.00000000    0.00000000
  0.00000000    0.00000000    0.00000000
  0.00000000    0.00000000    0.00000000
  0.00000000    0.00000000    0.00000000
  0.00000000    0.00000000    0.00000000
  0.00000000    0.00000000    0.00000000
  0.00000000    0.00000000    0.00000000
  0.00000000    0.00000000    0.00000000
  0.00000000    0.00000000    0.00000000
  0.00000000    0.00000000    0.00000000
  0.00000000    0.00000000    0.00000000
  0.00000000    0.00000000    0.00000000
  0.00000000    0.00000000    0.00000000
  0.00000000    0.00000000    0.00000000
  0.00000000    0.00000000    0.00000000
  0.00000000    0.00000000    0.00000000
  0.00000000    0.00000000    0.00000000
  0.00000000    0.00000000    0.00000000
  0.00000000    0.00000000    0.00000000
  0.00000000    0.00000000    0.00000000
  0.00000000    0.00000000    0.00000000
  0.00000000    0.00000000    0.00000000
  0.00000000    0.00000000    0.00000000
  0.00000000    0.00000000    0.00000000
  0.00000000    0.00000000    0.00000000
  0.00000000    0.00000000    0.00000000
  0.00000000    0.00000000    0.00000000
  0.00000000    0.00000000    0.00000000
  0.00000000    0.00000000    0.00000000
  0.00000000    0.00000000    0.00000000
  0.00000000    0.00000000    0.00000000
  0.00000000    0.00000000    0.00000000
  0.00000000    0.00000000    0.00000000
  0.00000000    0.00000000    0.00000000
  0.00000000    0.00000000    0.00000000
  0.00000000    0.00000000    0.00000000
  0.00000000    0.00000000    0.00000000
  0.00000000    0.00000000    0.00000000
  0.00000000    0.00000000    0.00000000
  0.00000000    0.00000000    0.00000000
  0.00000000    0.00000000    0.00000000
  0.00000000    0.00000000    0.00000000
  0.00000000    0.00000000    0.00000000
  0.00000000    0.00000000    0.00000000
  0.00000000    0.00000000    0.00000000
  0.00000000    0.00000000    0.00000000
  0.00000000    0.00000000    0.00000000
  0.00000000    0.00000000    0.00000000
  0.00000000    0.00000000    0.00000000
  0.00000000    0.00000000    0.00000000
  0.00000000    0.00000000    0.00000000
  0.00000000    0.00000000    0.00000000
  0.00000000    0.00000000    0.00000000
  0.00000000    0.00000000    0.00000000
  0.00000000    0.00000000    0.00000000
  0.00000000    0.00000000    0.00000000
  0.00000000    0.00000000    0.00000000
  0.00000000    0.00000000    0.00000000
  0.00000000    0.00000000    0.00000000
  0.00000000    0.00000000    0.00000000
  0.00000000    0.00000000    0.00000000
  0.00000000    0.00000000    0.00000000
  0.00000000    0.00000000    0.00000000
  0.00000000    0.00000000    0.00000000
  0.00000000    0.00000000    0.00000000
  0.00000000    0.00000000    0.00000000
  0.00000000    0.00000000    0.00000000
  0.00000000    0.00000000    0.00000000
  0.00000000    0.00000000    0.00000000
  0.00000000    0.00000000    0.00000000
  0.00000000    0.00000000    0.00000000
  0.00000000    0.00000000    0.00000000
  0.00000000    0.00000000    0.00000000
  0.00000000    0.00000000    0.00000000
  0.00000000    0.00000000    0.00000000
  0.00000000    0.00000000    0.00000000
  0.00000000    0.00000000    0.00000000
  0.00000000    0.00000000    0.00000000
  0.00000000    0.00000000    0.00000000
  0.00000000    0.00000000    0.00000000
  0.00000000    0.00000000    0.00000000
  0.00000000    0.00000000    0.00000000
  0.00000000    0.00000000    0.00000000
  0.00000000    0.00000000    0.00000000
  0.00000000    0.00000000    0.00000000
  0.00000000    0.00000000    0.00000000
  0.00000000    0.00000000    0.00000000
  0.00000000    0.00000000    0.00000000
  0.00000000    0.00000000    0.00000000
  0.00000000    0.00000000    0.00000000
  0.00000000    0.00000000    0.00000000
  0.00000000    0.00000000    0.00000000
  0.00000000    0.00000000    0.00000000
  0.00000000    0.00000000    0.00000000
  0.00000000    0.00000000    0.00000000
  0.00000000    0.00000000    0.00000000
  0.00000000    0.00000000    0.00000000
  0.00000000    0.00000000    0.00000000
  0.00000000    0.00000000    0.00000000
  0.00000000    0.00000000    0.00000000
  0.00000000    0.00000000    0.00000000
  0.00000000    0.00000000    0.00000000
  0.00000000    0.00000000    0.00000000
  0.00000000    0.00000000    0.00000000
  0.00000000    0.00000000    0.00000000
  0.00000000    0.00000000    0.00000000
  0.00000000    0.00000000    0.00000000
  0.00000000    0.00000000    0.00000000
  0.00000000    0.00000000    0.00000000
  0.00000000    0.00000000    0.00000000
  0.00000000    0.00000000    0.00000000
  0.00000000    0.00000000    0.00000000
  0.00000000    0.00000000    0.00000000
        </DataArray>
      </PointData>
      <Points>
        <DataArray type="Float32" NumberOfComponents="3" Format="ascii">
          15.45505893 15.45435093 20.50522061 
          15.45511793 16.46426993 20.50563661 
          15.41502903 17.48231448 20.53016226 
          15.45561793 18.48434393 20.50505261 
          15.45557293 19.49504193 20.50502061 
          15.45594893 20.50423893 20.50504261 
          15.45592693 21.51451093 20.50498361 
          15.45568293 22.52431393 20.50538661 
          15.43567628 23.53412993 20.53171846 
          15.45562993 24.54502193 20.50554461 
          16.46567293 15.45491093 20.50519561 
          16.46523193 16.46452093 20.50541561 
          16.46534593 17.47427093 20.50485461 
          16.46563393 18.48508393 20.50553061 
          16.46542493 19.49466893 20.50552161 
          16.46553093 20.50495893 20.50558561 
          16.46550693 21.51472793 20.50494461 
          16.46544993 22.52447293 20.50544661 
          16.46583893 23.53460893 20.50549361 
          16.46547693 24.54412193 20.50522461 
          17.47554193 15.45466593 20.50522261 
          17.47543493 16.46499293 20.50552861 
          17.47569093 17.47464393 20.50548061 
          17.47524593 18.48416093 20.50519161 
          17.47503393 19.49420293 20.50559461 
          17.47524593 20.50486693 20.50554061 
          17.47534993 21.51491993 20.50582661 
          17.46550913 22.52713178 20.54981036 
          17.47741813 23.54299868 20.53710271 
          17.47504693 24.54423493 20.50520461 
          18.48592293 15.45469093 20.50513561 
          18.48560993 16.46476793 20.50528261 
          18.48524293 17.47488993 20.50494261 
          18.48500793 18.48427493 20.50516461 
          18.48534393 19.49491393 20.50582161 
          18.48590193 20.50421893 20.50578661 
          18.48497093 21.51437593 20.50557761 
          18.48529193 22.52447193 20.50505961 
          18.48508893 23.53449493 20.50496061 
          18.48500793 24.54437593 20.50527261 
          19.49571293 15.45427593 20.50495861 
          19.48767843 16.46253753 20.51711191 
          19.49588993 17.47466193 20.50580661 
          19.49579093 18.48461593 20.50564761 
          19.49533093 19.49506293 20.50543461 
          19.49527493 20.50497793 20.50567761 
          19.49500393 21.51468393 20.50534861 
          19.49539193 22.52485393 20.50534261 
          19.49556593 23.53413293 20.50500961 
          19.49535093 24.54459193 20.50523761 
          20.50562093 15.45425793 20.50532061 
          20.50533493 16.46437693 20.50513461 
          20.50594393 17.47507393 20.50522061 
          20.50556693 18.48461193 20.50538561 
          20.50529093 19.49438493 20.50532761 
          20.50496593 20.50472293 20.50552161 
          20.50565793 21.51458693 20.50547061 
          20.50593993 22.52487793 20.50511361 
          20.50571393 23.53415993 20.50485061 
          20.50554493 24.54481493 20.50549961 
          21.51579293 15.45450893 20.50526261 
          21.51566493 16.46443293 20.50517561 
          21.51556293 17.47479893 20.50580561 
          21.51528293 18.48453293 20.50524861 
          21.51534893 19.49462593 20.50549461 
          21.51502193 20.50455593 20.50493761 
          21.51505493 21.51464793 20.50502261 
          21.51590893 22.52427693 20.50582761 
          21.51531493 23.53412193 20.50503761 
          21.51507293 24.54411293 20.50568461 
          22.52560093 15.45462193 20.50567961 
          22.52550093 16.46482593 20.50500361 
          22.52548893 17.47439293 20.50548861 
          22.52499993 18.48449793 20.50538761 
          22.52539293 19.49502093 20.50561861 
          22.52553893 20.50455593 20.50550561 
          22.52557493 21.51482793 20.50565561 
          22.52566693 22.52422193 20.50535961 
          22.52555293 23.53460593 20.50564261 
          22.52520393 24.54416493 20.50511761 
          23.53593393 15.45473293 20.50549261 
          23.53575893 16.46454493 20.50564961 
          23.53533493 17.47460393 20.50495061 
          23.53518093 18.48499993 20.50512161 
          23.53524793 19.49508193 20.50557261 
          23.53594993 20.50457293 20.50512561 
          23.53561193 21.51462193 20.50566961 
          23.53582593 22.52492493 20.50486561 
          23.53593793 23.53465293 20.50557561 
          23.53529593 24.54472093 20.50581061 
          24.54514093 15.45432293 20.50579661 
          24.54519793 16.46452893 20.50530761 
          24.54550093 17.47488393 20.50501461 
          24.54577293 18.48490093 20.50540361 
          24.54500093 19.49469693 20.50510561 
          24.54573093 20.50417293 20.50527261 
          24.54546993 21.51415193 20.50500761 
          24.54520293 22.52449293 20.50527161 
          24.54521893 23.53423293 20.50506261 
          24.54534093 24.54424293 20.50484661 
          15.45511793 15.45460393 19.49582761 
          15.45515293 16.46504593 19.49556161 
          15.45548293 17.47485493 19.49516161 
          15.45547593 18.48489393 19.49535261 
          15.45524693 19.49461793 19.49577661 
          15.45511693 20.50421293 19.49510961 
          15.45496193 21.51423093 19.49571561 
          15.45550793 22.52507793 19.49542161 
          15.45511393 23.53416393 19.49560961 
          15.45890553 24.56739883 19.47475261 
          16.46567893 15.45472393 19.49537161 
          16.46566093 16.46459893 19.49520361 
          16.46566593 17.47424093 19.49575861 
          16.46591393 18.48507993 19.49498461 
          16.46539693 19.49461293 19.49488061 
          16.46496493 20.50484593 19.49542461 
          16.45698943 21.51578743 19.44963211 
          16.46501593 22.52481493 19.49570761 
          16.46588593 23.53438693 19.49529061 
          16.46535593 24.54417193 19.49490761 
          17.47532793 15.45490393 19.49561861 
          17.47529593 16.46433293 19.49544161 
          17.47583793 17.47464993 19.49538161 
          17.47587793 18.48509893 19.49573261 
          17.47573693 19.49488493 19.49487961 
          17.47578693 20.50483693 19.49487861 
          17.47559693 21.51468293 19.49528261 
          17.47595193 22.52429693 19.49549461 
          17.47558193 23.53475493 19.49502961 
          17.47587693 24.54441493 19.49581161 
          18.48505893 15.45444893 19.49531061 
          18.48528893 16.46436193 19.49500661 
          18.48544893 17.47480093 19.49553561 
          18.48502693 18.48431493 19.49486161 
          18.48525993 19.49494393 19.49565561 
          18.48578593 20.50457693 19.49542961 
          18.48586393 21.51460593 19.49565261 
          18.47557073 22.53454118 19.46905361 
          18.48524593 23.53453593 19.49538061 
          18.48642418 24.54250153 19.47316341 
          19.49505393 15.45462693 19.49554961 
          19.49557493 16.46424393 19.49526961 
          19.49568493 17.47485593 19.49538561 
          19.49582693 18.48491993 19.49581261 
          19.49567393 19.49461093 19.49502861 
          19.49498093 20.50491793 19.49569461 
          19.49553193 21.51412593 19.49575861 
          19.49501393 22.52421493 19.49487161 
          19.49590893 23.53458993 19.49557061 
          19.49502693 24.54415093 19.49559961 
          20.50547893 15.45430293 19.49571261 
          20.50548793 16.46453493 19.49566261 
          20.50519493 17.47432393 19.49573361 
          20.50018843 18.48549713 19.46007456 
          20.50522793 19.49459993 19.49529061 
          20.50551693 20.50416393 19.49529861 
          20.50562593 21.51425393 19.49489761 
          20.50523293 22.52494793 19.49545761 
          20.50563593 23.53461193 19.49488861 
          20.50554893 24.54471993 19.49574661 
          21.51592493 15.45505993 19.49580161 
          21.51514993 16.46449393 19.49513461 
          21.51499093 17.47421693 19.49515461 
          21.51498193 18.48477093 19.49492661 
          21.51496693 19.49465993 19.49531561 
          21.51569993 20.50482393 19.49578461 
          21.51524293 21.51428793 19.49514661 
          21.51571193 22.52508893 19.49563461 
          21.51532193 23.53452193 19.49582361 
          21.51574793 24.54427693 19.49514161 
          22.52544893 15.45473093 19.49488061 
          22.52591293 16.46428293 19.49517361 
          22.52547493 17.47436693 19.49552161 
          22.52580193 18.48439393 19.49487461 
          22.52512793 19.49441893 19.49554161 
          22.52545593 20.50491993 19.49540761 
          22.52569593 21.51445693 19.49573061 
          22.52533393 22.52411993 19.49579061 
          22.52522593 23.53444093 19.49570461 
          22.52237288 24.56697998 19.47592016 
          23.53517193 15.45449493 19.49500161 
          23.53557993 16.46445093 19.49491061 
          23.53587593 17.47506493 19.49494461 
          23.53515493 18.48510893 19.49498461 
          23.53549693 19.49480593 19.49555361 
          23.53558393 20.50424393 19.49522561 
          23.53549093 21.51426693 19.49508761 
          23.53575993 22.52424193 19.49508161 
          23.53496893 23.53467193 19.49579261 
          23.53500993 24.54473693 19.49570961 
          24.54560193 15.45420993 19.49567561 
          24.54507093 16.46496693 19.49523761 
          24.54524593 17.47491993 19.49532761 
          24.54577993 18.48503193 19.49549761 
          24.54568893 19.49464693 19.49491061 
          24.55283293 20.51590028 19.45538501 
          24.54543693 21.51508393 19.49516261 
          24.54572693 22.52455993 19.49526961 
          24.54531093 23.53478593 19.49578061 
          24.54569193 24.54454993 19.49490661 
        </DataArray>
      </Points>
      <Cells>
        <DataArray type="Int32" Name="connectivity" Format="ascii">
           0 10 11 
           0 11 1 
           10 20 21 
           10 21 11 
           21 30 31 
           30 21 20 
           30 40 41 
           30 41 31 
           40 50 51 
           40 51 41 
           51 60 61 
           60 51 50 
           60 70 71 
           60 71 61 
           70 80 81 
           70 81 71 
           80 90 91 
           80 91 81 
           1 11 12 
           1 12 2 
           11 21 22 
           11 22 12 
           21 31 32 
           21 32 22 
           32 41 42 
           41 32 31 
           42 51 52 
           51 42 41 
           51 61 62 
           51 62 52 
           61 71 72 
           61 72 62 
           71 81 82 
           71 82 72 
           81 91 92 
           81 92 82 
           2 13 3 
           13 2 12 
           12 22 23 
           12 23 13 
           23 32 33 
           32 23 22 
           33 42 43 
           42 33 32 
           42 52 53 
           42 53 43 
           52 62 63 
           52 63 53 
           62 72 73 
           62 73 63 
           72 82 83 
           72 83 73 
           82 92 93 
           82 93 83 
           3 13 14 
           3 14 4 
           13 23 24 
           13 24 14 
           24 33 34 
           33 24 23 
           133 43 143 
           43 133 33 
           43 144 143 
           43 44 144 
           33 133 134 
           33 134 34 
           34 144 44 
           34 134 144 
           43 53 54 
           43 54 44 
           53 63 64 
           53 64 54 
           63 73 74 
           63 74 64 
           73 83 183 
           73 183 173 
           184 83 84 
           83 184 183 
           73 173 174 
           73 174 74 
           174 84 74 
           84 174 184 
           83 93 94 
           83 94 84 
           4 14 15 
           4 15 5 
           14 24 25 
           14 25 15 
           24 34 35 
           24 35 25 
           35 44 45 
           44 35 34 
           45 54 55 
           54 45 44 
           54 64 65 
           54 65 55 
           64 74 75 
           64 75 65 
           75 84 85 
           84 75 74 
           85 94 95 
           94 85 84 
           5 15 16 
           5 16 6 
           15 25 26 
           15 26 16 
           25 35 36 
           25 36 26 
           36 45 46 
           45 36 35 
           45 55 56 
           45 56 46 
           55 65 66 
           55 66 56 
           65 75 76 
           65 76 66 
           76 85 86 
           85 76 75 
           85 95 96 
           85 96 86 
           6 16 17 
           6 17 7 
           16 26 27 
           16 27 17 
           26 36 37 
           26 37 27 
           36 46 47 
           36 47 37 
           46 56 57 
           46 57 47 
           56 66 67 
           56 67 57 
           67 76 77 
           76 67 66 
           76 86 87 
           76 87 77 
           87 96 97 
           96 87 86 
           8 17 18 
           17 8 7 
           17 27 28 
           17 28 18 
           27 37 38 
           27 38 28 
           37 47 147 
           37 147 137 
           47 148 147 
           47 48 148 
           37 137 138 
           37 138 38 
           38 148 48 
           38 138 148 
           48 57 58 
           57 48 47 
           57 67 68 
           57 68 58 
           68 77 78 
           77 68 67 
           77 87 187 
           77 187 177 
           87 188 187 
           87 88 188 
           77 177 178 
           77 178 78 
           178 88 78 
           88 178 188 
           87 97 98 
           87 98 88 
           9 18 19 
           18 9 8 
           18 28 29 
           18 29 19 
           28 38 39 
           28 39 29 
           39 48 49 
           48 39 38 
           48 58 59 
           48 59 49 
           58 68 69 
           58 69 59 
           68 78 79 
           68 79 69 
           79 88 89 
           88 79 78 
           88 98 99 
           88 99 89 
           101 110 100 
           110 101 111 
           110 121 120 
           110 111 121 
           120 131 130 
           120 121 131 
           131 140 130 
           140 131 141 
           140 151 150 
           140 141 151 
           150 161 160 
           150 151 161 
           160 171 170 
           160 161 171 
           170 181 180 
           170 171 181 
           181 190 180 
           190 181 191 
           101 112 111 
           101 102 112 
           112 121 111 
           121 112 122 
           121 132 131 
           121 122 132 
           131 142 141 
           131 132 142 
           141 152 151 
           141 142 152 
           151 162 161 
           151 152 162 
           161 172 171 
           161 162 172 
           172 181 171 
           181 172 182 
           181 192 191 
           181 182 192 
           102 113 112 
           102 103 113 
           112 123 122 
           112 113 123 
           122 133 132 
           122 123 133 
           132 143 142 
           132 133 143 
           142 153 152 
           142 143 153 
           152 163 162 
           152 153 163 
           162 173 172 
           162 163 173 
           172 183 182 
           172 173 183 
           182 193 192 
           182 183 193 
           103 114 113 
           103 104 114 
           113 124 123 
           113 114 124 
           123 134 133 
           123 124 134 
           143 154 153 
           143 144 154 
           153 164 163 
           153 154 164 
           163 174 173 
           163 164 174 
           183 194 193 
           183 184 194 
           105 114 104 
           114 105 115 
           115 124 114 
           124 115 125 
           124 135 134 
           124 125 135 
           145 134 135 
           134 145 144 
           144 155 154 
           144 145 155 
           165 154 155 
           154 165 164 
           165 174 164 
           174 165 175 
           174 185 184 
           174 175 185 
           184 195 194 
           184 185 195 
           105 116 115 
           105 106 116 
           116 125 115 
           125 116 126 
           125 136 135 
           125 126 136 
           135 146 145 
           135 136 146 
           145 156 155 
           145 146 156 
           155 166 165 
           155 156 166 
           165 176 175 
           165 166 176 
           176 185 175 
           185 176 186 
           185 196 195 
           185 186 196 
           106 117 116 
           106 107 117 
           116 127 126 
           116 117 127 
           127 136 126 
           136 127 137 
           136 147 146 
           136 137 147 
           146 157 156 
           146 147 157 
           156 167 166 
           156 157 167 
           166 177 176 
           166 167 177 
           176 187 186 
           176 177 187 
           186 197 196 
           186 187 197 
           107 118 117 
           107 108 118 
           117 128 127 
           117 118 128 
           128 137 127 
           137 128 138 
           148 157 147 
           157 148 158 
           157 168 167 
           157 158 168 
           167 178 177 
           167 168 178 
           188 197 187 
           197 188 198 
           108 119 118 
           108 109 119 
           119 128 118 
           128 119 129 
           128 139 138 
           128 129 139 
           138 149 148 
           138 139 149 
           148 159 158 
           148 149 159 
           158 169 168 
           158 159 169 
           168 179 178 
           168 169 179 
           178 189 188 
           178 179 189 
           189 198 188 
           198 189 199 
           0 100 110 
           0 110 10 
           10 110 120 
           10 120 20 
           20 120 130 
           20 130 30 
           30 130 140 
           30 140 40 
           40 140 150 
           40 150 50 
           50 150 160 
           50 160 60 
           60 160 170 
           60 170 70 
           70 170 180 
           70 180 80 
           80 180 190 
           80 190 90 
           19 119 109 
           19 109 9 
           19 129 119 
           129 19 29 
           39 139 129 
           39 129 29 
           49 149 139 
           49 139 39 
           59 159 149 
           59 149 49 
           69 169 159 
           69 159 59 
           79 179 169 
           79 169 69 
           79 189 179 
           189 79 89 
           89 199 189 
           199 89 99 
           1 101 100 
           1 100 0 
           2 102 101 
           2 101 1 
           3 103 102 
           3 102 2 
           4 104 103 
           4 103 3 
           5 105 104 
           5 104 4 
           6 106 105 
           6 105 5 
           7 107 106 
           7 106 6 
           8 108 107 
           8 107 7 
           9 109 108 
           9 108 8 
           91 190 191 
           190 91 90 
           91 191 192 
           91 192 92 
           93 192 193 
           192 93 92 
           94 193 194 
           193 94 93 
           94 194 195 
           94 195 95 
           96 195 196 
           195 96 95 
           96 196 197 
           96 197 97 
           97 197 198 
           97 198 98 
           98 198 199 
           98 199 99 
        </DataArray>
        <DataArray type="Int32" Name="offsets" Format="ascii">