<VTKFile type="UnstructuredGrid" version="0.1" byte_order="BigEndian">
  <UnstructuredGrid>
    <Piece NumberOfPoints="200" NumberOfCells="436">
      <PointData Scalars="scalars">
        <DataArray type="Float32" Name="inc" Format="ascii">
          0
          0
          0
          0
          0
          0
          0
          0
          0
          0
          0
          0
          0
          0
          0
          0
          0
          0
          0
          0
          0
          0
          0
          0
          0
          0
          0
          0
          0
          0
          0
          0
          0
          0
          0
          0
          0
          0
          0
          0
          0
          0
          0
          0
          0
          0
          0
          0
          0
          0
          0
          0
          0
          0
          0
          0
          0
          0
          0
          0
          0
          0
          0
          0
          0
          0
          0
          0
          0
          0
          0
          0
          0
          0
          0
          0
          0
          0
          0
          0
          0
          0
          0
          0
          0
          0
          0
          0
          0
          0
          0
          0
          0
          0
          0
          0
          0
          0
          0
          0
          0
          0
          0
          0
          0
          0
          0
          0
          0
          0
          0
          0
          0
          0
          0
          0
          0
          0
          0
          0
          0
          0
          0
          0
          0
          0
          0
          0
          0
          0
          0
          0
          0
          0
          0
          0
          0
          0
          0
          0
          0
          0
          0
          0
          0
          0
          0
          0
          0
          0
          0
          0
          0
          0
          0
          0
          0
          0
          0
          0
          0
          0
          0
          0
          0
          0
          0
          0
          0
          0
          0
          0
          0
          0
          0
          0
          0
          0
          0
          0
          0
          0
          0
          0
          0
          0
          0
          0
          0
          0
          0
          0
          0
          0
          0
          0
          0
          0
          0
          0
        </DataArray>
      </PointData>
      <Points>
        <DataArray type="Float32" NumberOfComponents="3" Format="ascii">
          1.0001 1.00024 20.5054 
          1.00016 2.01016 20.5058 
          1.00057 3.02088 20.5051 
          1.00066 4.03023 20.5052 
          1.00062 5.04093 20.5052 
          1.00099 6.05013 20.5052 
          1.00097 7.0604 20.5052 
          1.00073 8.0702 20.5056 
          1.00049 9.08077 20.5059 
          1.00067 10.0909 20.5057 
          2.01072 1.0008 20.5054 
          2.01028 2.01041 20.5056 
          2.01039 3.02016 20.505 
          2.01068 4.03097 20.5057 
          2.01047 5.04056 20.5057 
          2.01058 6.05085 20.5058 
          2.01055 7.06062 20.5051 
          2.0105 8.07036 20.5056 
          2.01088 9.0805 20.5057 
          2.01052 10.09 20.5054 
          3.02059 1.00055 20.5054 
          3.02048 2.01088 20.5057 
          3.02074 3.02053 20.5056 
          3.02029 4.03005 20.5054 
          3.02008 5.04009 20.5058 
          3.02029 6.05075 20.5057 
          3.0204 7.06081 20.506 
          3.02089 8.07044 20.5053 
          3.0208 9.08017 20.5054 
          3.02009 10.0901 20.5054 
          4.03097 1.00058 20.5053 
          4.03066 2.01065 20.5055 
          4.03029 3.02078 20.5051 
          4.03005 4.03016 20.5053 
          4.03039 5.0408 20.506 
          4.03095 6.05011 20.506 
          4.03002 7.06026 20.5057 
          4.03034 8.07036 20.5052 
          4.03013 9.08038 20.5051 
          4.03005 10.0903 20.5054 
          5.04076 1.00016 20.5051 
          5.04073 2.01027 20.5051 
          5.04094 3.02055 20.506 
          5.04084 4.0305 20.5058 
          5.04038 5.04095 20.5056 
          5.04032 6.05086 20.5058 
          5.04005 7.06057 20.5055 
          5.04044 8.07074 20.5055 
          5.04061 9.08002 20.5052 
          5.0404 10.0905 20.5054 
          6.05067 1.00015 20.5055 
          6.05038 2.01026 20.5053 
          6.05099 3.02096 20.5054 
          6.05061 4.0305 20.5056 
          6.05034 5.04027 20.5055 
          6.05001 6.05061 20.5057 
          6.0507 7.06047 20.5056 
          6.05098 8.07076 20.5053 
          6.05076 9.08005 20.505 
          6.05059 10.0907 20.5057 
          7.06084 1.0004 20.5054 
          7.06071 2.01032 20.5053 
          7.06061 3.02069 20.506 
          7.06033 4.03042 20.5054 
          7.06039 5.04051 20.5057 
          7.06007 6.05044 20.5051 
          7.0601 7.06053 20.5052 
          7.06095 8.07016 20.506 
          7.06036 9.08001 20.5052 
          7.06012 10.09 20.5059 
          8.07065 1.00051 20.5058 
          8.07055 2.01071 20.5052 
          8.07053 3.02028 20.5057 
          8.07005 4.03038 20.5056 
          8.07044 5.04091 20.5058 
          8.07058 6.05044 20.5057 
          8.07062 7.06072 20.5058 
          8.07071 8.07011 20.5055 
          8.0706 9.08049 20.5058 
          8.07025 10.0901 20.5053 
          9.08098 1.00062 20.5057 
          9.0808 2.01043 20.5058 
          9.08038 3.02049 20.5051 
          9.08023 4.03089 20.5053 
          9.08029 5.04097 20.5057 
          9.08099 6.05046 20.5053 
          9.08066 7.06051 20.5058 
          9.08087 8.07081 20.505 
          9.08098 9.08054 20.5057 
          9.08034 10.0906 20.506 
          10.0902 1.00021 20.506 
          10.0902 2.01042 20.5055 
          10.0905 3.02077 20.5052 
          10.0908 4.03079 20.5056 
          10.09 5.04058 20.5053 
          10.0908 6.05006 20.5054 
          10.0905 7.06004 20.5052 
          10.0902 8.07038 20.5054 
          10.0903 9.08012 20.5052 
          10.0904 10.0901 20.505 
          1.00016 1.00049 19.496 
          1.0002 2.01093 19.4957 
          1.00053 3.02074 19.4953 
          1.00052 4.03078 19.4955 
          1.00029 5.0405 19.4959 
          1.00016 6.0501 19.4953 
          1.00001 7.06012 19.4959 
          1.00055 8.07096 19.4956 
          1.00016 9.08005 19.4958 
          1.00033 10.0905 19.4955 
          2.01072 1.00061 19.4955 
          2.01071 2.01049 19.4954 
          2.01071 3.02013 19.4959 
          2.01096 4.03097 19.4952 
          2.01044 5.0405 19.495 
          2.01001 6.05073 19.4956 
          2.01092 7.06055 19.4954 
          2.01006 8.0707 19.4959 
          2.01093 9.08027 19.4955 
          2.0104 10.0901 19.4951 
          3.02037 1.00079 19.4958 
          3.02034 2.01022 19.4956 
          3.02088 3.02054 19.4956 
          3.02092 4.03099 19.4959 
          3.02078 5.04077 19.495 
          3.02083 6.05072 19.495 
          3.02064 7.06057 19.4955 
          3.021 8.07018 19.4957 
          3.02063 9.08064 19.4952 
          3.02092 10.0903 19.496 
          4.0301 1.00034 19.4955 
          4.03033 2.01025 19.4952 
          4.03049 3.02069 19.4957 
          4.03007 4.0302 19.495 
          4.03031 5.04083 19.4958 
          4.03083 6.05046 19.4956 
          4.03091 7.06049 19.4958 
          4.03004 8.07036 19.495 
          4.03029 9.08042 19.4956 
          4.03068 10.0906 19.4953 
          5.0401 1.00051 19.4957 
          5.04062 2.01013 19.4954 
          5.04073 3.02074 19.4956 
          5.04087 4.03081 19.496 
          5.04072 5.0405 19.4952 
          5.04003 6.05081 19.4959 
          5.04058 7.06001 19.4959 
          5.04006 8.0701 19.495 
          5.04095 9.08048 19.4957 
          5.04007 10.09 19.4958 
          6.05052 1.00019 19.4959 
          6.05053 2.01042 19.4958 
          6.05024 3.02021 19.4959 
          6.0504 4.03084 19.4954 
          6.05027 5.04049 19.4955 
          6.05056 6.05005 19.4955 
          6.05067 7.06014 19.4951 
          6.05028 8.07084 19.4956 
          6.05068 9.0805 19.4951 
          6.05059 10.0906 19.4959 
          7.06097 1.00095 19.496 
          7.0602 2.01038 19.4953 
          7.06004 3.0201 19.4953 
          7.06003 4.03066 19.4951 
          7.06001 5.04055 19.4955 
          7.06074 6.05071 19.496 
          7.06029 7.06018 19.4953 
          7.06076 8.07098 19.4958 
          7.06037 9.08041 19.496 
          7.06079 10.0902 19.4953 
          8.07049 1.00062 19.495 
          8.07096 2.01017 19.4953 
          8.07052 3.02025 19.4957 
          8.07085 4.03028 19.495 
          8.07017 5.04031 19.4957 
          8.0705 6.05081 19.4956 
          8.07074 7.06034 19.4959 
          8.07038 8.07001 19.496 
          8.07027 9.08033 19.4959 
          8.07014 10.0903 19.4952 
          9.08022 1.00038 19.4952 
          9.08062 2.01034 19.4951 
          9.08092 3.02095 19.4951 
          9.0802 4.031 19.4952 
          9.08054 5.04069 19.4957 
          9.08063 6.05013 19.4954 
          9.08054 7.06015 19.4953 
          9.0808 8.07013 19.4953 
          9.08001 9.08056 19.496 
          9.08005 10.0906 19.4959 
          10.0906 1.0001 19.4958 
          10.0901 2.01085 19.4954 
          10.0903 3.02081 19.4955 
          10.0908 4.03092 19.4957 
          10.0907 5.04053 19.4951 
          10.0902 6.05032 19.495 
          10.0905 7.06097 19.4953 
          10.0908 8.07045 19.4954 
          10.0904 9.08067 19.496 
          10.0907 10.0904 19.4951 
        </DataArray>
      </Points>
      <Cells>
        <DataArray type="Int32" Name="connectivity" Format="ascii">
           0 10 11 
           0 11 1 
           10 20 21 
           10 21 11 
           20 30 31 
           20 31 21 
           30 40 41 
           30 41 31 
           40 50 51 
           40 51 41 
           50 60 61 
           50 61 51 
           60 70 71 
           60 71 61 
           70 80 81 
           70 81 71 
           80 90 91 
           80 91 81 
           1 11 12 
           1 12 2 
           11 21 121 
           11 121 111 
           21 122 121 
           21 22 122 
           11 111 112 
           11 112 12 
           12 122 22 
           12 112 122 
           21 31 32 
           21 32 22 
           31 41 141 
           31 141 131 
           41 142 141 
           41 42 142 
           31 131 132 
           31 132 32 
           32 142 42 
           32 132 142 
           41 51 52 
           41 52 42 
           51 61 161 
           51 161 151 
           61 162 161 
           61 62 162 
           51 151 152 
           51 152 52 
           52 162 62 
           52 152 162 
           61 71 72 
           61 72 62 
           71 81 181 
           71 181 171 
           81 182 181 
           81 82 182 
           71 171 172 
           71 172 72 
           72 182 82 
           72 172 182 
           81 91 92 
           81 92 82 
           2 12 13 
           2 13 3 
           12 22 23 
           12 23 13 
           22 32 33 
           22 33 23 
           32 42 43 
           32 43 33 
           42 52 53 
           42 53 43 
           52 62 63 
           52 63 53 
           62 72 73 
           62 73 63 
           72 82 83 
           72 83 73 
           82 92 93 
           82 93 83 
           3 13 14 
           3 14 4 
           13 23 123 
           13 123 113 
           23 124 123 
           23 24 124 
           13 113 114 
           13 114 14 
           14 124 24 
           14 114 124 
           23 33 34 
           23 34 24 
           33 43 143 
           33 143 133 
           43 144 143 
           43 44 144 
           33 133 134 
           33 134 34 
           34 144 44 
           34 134 144 
           43 53 54 
           43 54 44 
           53 63 163 
           53 163 153 
           63 164 163 
           63 64 164 
           53 153 154 
           53 154 54 
           54 164 64 
           54 154 164 
           63 73 74 
           63 74 64 
           73 83 183 
           73 183 173 
           83 184 183 
           83 84 184 
           73 173 174 
           73 174 74 
           74 184 84 
           74 174 184 
           83 93 94 
           83 94 84 
           4 14 15 
           4 15 5 
           14 24 25 
           14 25 15 
           24 34 35 
           24 35 25 
           34 44 45 
           34 45 35 
           44 54 55 
           44 55 45 
           54 64 65 
           54 65 55 
           64 74 75 
           64 75 65 
           74 84 85 
           74 85 75 
           84 94 95 
           84 95 85 
           5 15 16 
           5 16 6 
           15 25 125 
           15 125 115 
           25 126 125 
           25 26 126 
           15 115 116 
           15 116 16 
           16 126 26 
           16 116 126 
           25 35 36 
           25 36 26 
           35 45 145 
           35 145 135 
           45 146 145 
           45 46 146 
           35 135 136 
           35 136 36 
           36 146 46 
           36 136 146 
           45 55 56 
           45 56 46 
           55 65 66 
           55 66 56 
           65 75 76 
           65 76 66 
           75 85 86 
           75 86 76 
           85 95 96 
           85 96 86 
           6 16 17 
           6 17 7 
           16 26 27 
           16 27 17 
           26 36 37 
           26 37 27 
           36 46 47 
           36 47 37 
           46 56 57 
           46 57 47 
           56 66 67 
           56 67 57 
           66 76 77 
           66 77 67 
           76 86 87 
           76 87 77 
           86 96 97 
           86 97 87 
           7 17 18 
           7 18 8 
           17 27 28 
           17 28 18 
           27 37 38 
           27 38 28 
           37 47 48 
           37 48 38 
           47 57 58 
           47 58 48 
           57 67 68 
           57 68 58 
           67 77 78 
           67 78 68 
           77 87 88 
           77 88 78 
           87 97 98 
           87 98 88 
           8 18 19 
           8 19 9 
           18 28 29 
           18 29 19 
           28 38 39 
           28 39 29 
           38 48 49 
           38 49 39 
           48 58 59 
           48 59 49 
           58 68 69 
           58 69 59 
           68 78 79 
           68 79 69 
           78 88 89 
           78 89 79 
           88 98 99 
           88 99 89 
           100 111 110 
           100 101 111 
           110 121 120 
           110 111 121 
           120 131 130 
           120 121 131 
           130 141 140 
           130 131 141 
           140 151 150 
           140 141 151 
           150 161 160 
           150 151 161 
           160 171 170 
           160 161 171 
           170 181 180 
           170 171 181 
           180 191 190 
           180 181 191 
           101 112 111 
           101 102 112 
           121 132 131 
           121 122 132 
           141 152 151 
           141 142 152 
           161 172 171 
           161 162 172 
           181 192 191 
           181 182 192 
           102 113 112 
           102 103 113 
           112 123 122 
           112 113 123 
           122 133 132 
           122 123 133 
           132 143 142 
           132 133 143 
           142 153 152 
           142 143 153 
           152 163 162 
           152 153 163 
           162 173 172 
           162 163 173 
           172 183 182 
           172 173 183 
           182 193 192 
           182 183 193 
           103 114 113 
           103 104 114 
           123 134 133 
           123 124 134 
           143 154 153 
           143 144 154 
           163 174 173 
           163 164 174 
           183 194 193 
           183 184 194 
           104 115 114 
           104 105 115 
           114 125 124 
           114 115 125 
           124 135 134 
           124 125 135 
           134 145 144 
           134 135 145 
           144 155 154 
           144 145 155 
           154 165 164 
           154 155 165 
           164 175 174 
           164 165 175 
           174 185 184 
           174 175 185 
           184 195 194 
           184 185 195 
           105 116 115 
           105 106 116 
           125 136 135 
           125 126 136 
           145 156 155 
           145 146 156 
           155 166 165 
           155 156 166 
           165 176 175 
           165 166 176 
           175 186 185 
           175 176 186 
           185 196 195 
           185 186 196 
           106 117 116 
           106 107 117 
           116 127 126 
           116 117 127 
           126 137 136 
           126 127 137 
           136 147 146 
           136 137 147 
           146 157 156 
           146 147 157 
           156 167 166 
           156 157 167 
           166 177 176 
           166 167 177 
           176 187 186 
           176 177 187 
           186 197 196 
           186 187 197 
           107 118 117 
           107 108 118 
           117 128 127 
           117 118 128 
           127 138 137 
           127 128 138 
           137 148 147 
           137 138 148 
           147 158 157 
           147 148 158 
           157 168 167 
           157 158 168 
           167 178 177 
           167 168 178 
           177 188 187 
           177 178 188 
           187 198 197 
           187 188 198 
           108 119 118 
           108 109 119 
           118 129 128 
           118 119 129 
           128 139 138 
           128 129 139 
           138 149 148 
           138 139 149 
           148 159 158 
           148 149 159 
           158 169 168 
           158 159 169 
           168 179 178 
           168 169 179 
           178 189 188 
           178 179 189 
           188 199 198 
           188 189 199 
           0 100 110 
           0 110 10 
           10 110 120 
           10 120 20 
           20 120 130 
           20 130 30 
           30 130 140 
           30 140 40 
           40 140 150 
           40 150 50 
           50 150 160 
           50 160 60 
           60 160 170 
           60 170 70 
           70 170 180 
           70 180 80 
           80 180 190 
           80 190 90 
           19 119 109 
           19 109 9 
           29 129 119 
           29 119 19 
           39 139 129 
           39 129 29 
           49 149 139 
           49 139 39 
           59 159 149 
           59 149 49 
           69 169 159 
           69 159 59 
           79 179 169 
           79 169 69 
           89 189 179 
           89 179 79 
           99 199 189 
           99 189 89 
           1 101 100 
           1 100 0 
           2 102 101 
           2 101 1 
           3 103 102 
           3 102 2 
           4 104 103 
           4 103 3 
           5 105 104 
           5 104 4 
           6 106 105 
           6 105 5 
           7 107 106 
           7 106 6 
           8 108 107 
           8 107 7 
           9 109 108 
           9 108 8 
           90 190 191 
           90 191 91 
           91 191 192 
           91 192 92 
           92 192 193 
           92 193 93 
           93 193 194 
           93 194 94 
           94 194 195 
           94 195 95 
           95 195 196 
           95 196 96 
           96 196 197 
           96 197 97 
           97 197 198 
           97 198 98 
           98 198 199 
           98 199 99 
        </DataArray>
        <DataArray type="Int32" Name="offsets" Format="ascii">
          3 6 9 12 15 18 21 24 27 30 33 36 39 42 45 48 51 54 57 60 63 66 69 72 75 78 81 84 87 90 93 96 99 102 105 108 111 114 117 120 123 126 129 132 135 138 141 144 147 150 153 156 159 162 165 168 171 174 177 180 183 186 189 192 195 198 201 204 207 210 213 216 219 222 225 228 231 234 237 240 243 246 249 252 255 258 261 264 267 270 273 276 279 282 285 288 291 294 297 300 303 306 309 312 315 318 321 324 327 330 333 336 339 342 345 348 351 354 357 360 363 366 369 372 375 378 381 384 387 390 393 396 399 402 405 408 411 414 417 420 423 426 429 432 435 438 441 444 447 450 453 456 459 462 465 468 471 474 477 480 483 486 489 492 495 498 501 504 507 510 513 516 519 522 525 528 531 534 537 540 543 546 549 552 555 558 561 564 567 570 573 576 579 582 585 588 591 594 597 600 603 606 609 612 615 618 621 624 627 630 633 636 639 642 645 648 651 654 657 660 663 666 669 672 675 678 681 684 687 690 693 696 699 702 705 708 711 714 717 720 723 726 729 732 735 738 741 744 747 750 753 756 759 762 765 768 771 774 777 780 783 786 789 792 795 798 801 804 807 810 813 816 819 822 825 828 831 834 837 840 843 846 849 852 855 858 861 864 867 870 873 876 879 882 885 888 891 894 897 900 903 906 909 912 915 918 921 924 927 930 933 936 939 942 945 948 951 954 957 960 963 966 969 972 975 978 981 984 987 990 993 996 999 1002 1005 1008 1011 1014 1017 1020 1023 1026 1029 1032 1035 1038 1041 1044 1047 1050 1053 1056 1059 1062 1065 1068 1071 1074 1077 1080 1083 1086 1089 1092 1095 1098 1101 1104 1107 1110 1113 1116 1119 1122 1125 1128 1131 1134 1137 1140 1143 1146 1149 1152 1155 1158 1161 1164 1167 1170 1173 1176 1179 1182 1185 1188 1191 1194 1197 1200 1203 1206 1209 1212 1215 1218 1221 1224 1227 1230 1233 1236 1239 1242 1245 1248 1251 1254 1257 1260 1263 1266 1269 1272 1275 1278 1281 1284 1287 1290 1293 1296 1299 1302 1305 1308 
        </DataArray>
        <DataArray type="Int32" Name="types" Format="ascii">
          5 5 5 5 5 5 5 5 5 5 5 5 5 5 5 5 5 5 5 5 5 5 5 5 5 5 5 5 5 5 5 5 5 5 5 5 5 5 5 5 5 5 5 5 5 5 5 5 5 5 5 5 5 5 5 5 5 5 5 5 5 5 5 5 5 5 5 5 5 5 5 5 5 5 5 5 5 5 5 5 5 5 5 5 5 5 5 5 5 5 5 5 5 5 5 5 5 5 5 5 5 5 5 5 5 5 5 5 5 5 5 5 5 5 5 5 5 5 5 5 5 5 5 5 5 5 5 5 5 5 5 5 5 5 5 5 5 5 5 5 5 5 5 5 5 5 5 5 5 5 5 5 5 5 5 5 5 5 5 5 5 5 5 5 5 5 5 5 5 5 5 5 5 5 5 5 5 5 5 5 5 5 5 5 5 5 5 5 5 5 5 5 5 5 5 5 5 5 5 5 5 5 5 5 5 5 5 5 5 5 5 5 5 5 5 5 5 5 5 5 5 5 5 5 5 5 5 5 5 5 5 5 5 5 5 5 5 5 5 5 5 5 5 5 5 5 5 5 5 5 5 5 5 5 5 5 5 5 5 5 5 5 5 5 5 5 5 5 5 5 5 5 5 5 5 5 5 5 5 5 5 5 5 5 5 5 5 5 5 5 5 5 5 5 5 5 5 5 5 5 5 5 5 5 5 5 5 5 5 5 5 5 5 5 5 5 5 5 5 5 5 5 5 5 5 5 5 5 5 5 5 5 5 5 5 5 5 5 5 5 5 5 5 5 5 5 5 5 5 5 5 5 5 5 5 5 5 5 5 5 5 5 5 5 5 5 5 5 5 5 5 5 5 5 5 5 5 5 5 5 5 5 5 5 5 5 5 5 5 5 5 5 5 5 5 5 5 5 5 5 5 5 5 5 5 5 5 5 5 5 5 5 5 5 5 5 5 5 5 5 5 5 5 5 5 5 5 5 5 5 5 5 5 5 5 5 
        </DataArray>
      </Cells>
    </Piece>
  </UnstructuredGrid>
</VTKFile> 
